<?xml version="1.0"?>
<VTKFile type="UnstructuredGrid" version="0.1" byte_order="LittleEndian" compressor="vtkZLibDataCompressor">
<UnstructuredGrid>
<Piece NumberOfPoints="21" NumberOfCells="10">
<PointData>
<DataArray type="Float64" Name="displacement" NumberOfComponents="3" format="ascii" >
0.0 0.0  0.
-0.0003716592138927304 0.0  0.
-0.713496915229272 -0.011713406693764932  0.
-0.000780654953891479 0.0  0.
-1.228248243284773 -0.018474188405372127  0.
-0.0003083550887174385 0.0  0.
-1.360791420173925 -0.020305074772567943  0.
0.0012692095358099638 0.0  0.
-0.9572323944161231 -0.02540931918136169  0.
0.0037611538157203343 0.0  0.
0.09440819795081894 -0.050355547900562826  0.
-0.0016106919662067971 0.0  0.
0.0517620638294893 -1.4767959978638159  0.
-0.0034398435038829798 0.0  0.
0.04116829567806746 -2.1248778841686744  0.
0.0008048638423810721 0.0  0.
0.039134419836777824 -1.9024425669880065  0.
0.001820277677679498 0.0  0.
0.0252075073040881 -1.097286959082289  0.
0.0008329833650155567 0.0  0.
0.0 0.0  0.
</DataArray>
</PointData>
<CellData>
</CellData>
<Points>
<DataArray type="Float64" Name="Points" NumberOfComponents="3" format="ascii">
0.0 0.0 0.0
0.0 12.0 0.0
0.0 24.0 0.0
0.0 36.0 0.0
0.0 48.0 0.0
0.0 60.0 0.0
0.0 72.0 0.0
0.0 84.0 0.0
0.0 96.0 0.0
0.0 108.0 0.0
0.0 120.0 0.0
12.0 120.0 0.0
24.0 120.0 0.0
36.0 120.0 0.0
48.0 120.0 0.0
60.0 120.0 0.0
72.0 120.0 0.0
84.0 120.0 0.0
96.0 120.0 0.0
108.0 120.0 0.0
120.0 120.0 0.0
</DataArray>
</Points>
<Cells>
<DataArray type="Int64" Name="connectivity" format="ascii">
0 2
2 4
4 6
6 8
8 10
10 12
12 14
14 16
16 18
18 20
</DataArray>
<DataArray type="Int64" Name="offsets" format="ascii">
2
4
6
8
10
12
14
16
18
20
</DataArray>
<DataArray type="UInt8" Name="types" format="ascii">
3
3
3
3
3
3
3
3
3
3
</DataArray>
</Cells>
</Piece>
</UnstructuredGrid>
</VTKFile>
