<?xml version="1.0"?>
<VTKFile type="UnstructuredGrid" version="0.1" byte_order="LittleEndian" compressor="vtkZLibDataCompressor">
<UnstructuredGrid>
<Piece NumberOfPoints="21" NumberOfCells="10">
<PointData>
<DataArray type="Float64" Name="displacement" NumberOfComponents="3" format="ascii" >
0.0 0.0  0.
0.12109404531710888 0.0  0.
9.479386668193149 -1.8883755370520707  0.
0.4748287719377257 0.0  0.
23.653304775191145 -6.1525046520736  0.
0.9228658823854058 0.0  0.
45.23676831081587 -15.981900012272938  0.
1.029576935907039 0.0  0.
74.2431609738029 -33.59737415443103  0.
0.4425192569644116 0.0  0.
107.8153498126026 -57.095481866102496  0.
-1.8398353594171155 0.0  0.
89.81537601547252 -86.27313607607833  0.
-1.536506253091098 0.0  0.
84.72928758302682 -100.38517065934947  0.
1.7055327017949138 0.0  0.
79.05790094974873 -85.44904067424875  0.
3.939324563963706 0.0  0.
51.70597993164324 -49.75478910661489  0.
2.213064812435011 0.0  0.
0.0 0.0  0.
</DataArray>
</PointData>
<CellData>
</CellData>
<Points>
<DataArray type="Float64" Name="Points" NumberOfComponents="3" format="ascii">
0.0 0.0 0.0
0.0 12.0 0.0
0.0 24.0 0.0
0.0 36.0 0.0
0.0 48.0 0.0
0.0 60.0 0.0
0.0 72.0 0.0
0.0 84.0 0.0
0.0 96.0 0.0
0.0 108.0 0.0
0.0 120.0 0.0
12.0 120.0 0.0
24.0 120.0 0.0
36.0 120.0 0.0
48.0 120.0 0.0
60.0 120.0 0.0
72.0 120.0 0.0
84.0 120.0 0.0
96.0 120.0 0.0
108.0 120.0 0.0
120.0 120.0 0.0
</DataArray>
</Points>
<Cells>
<DataArray type="Int64" Name="connectivity" format="ascii">
0 2
2 4
4 6
6 8
8 10
10 12
12 14
14 16
16 18
18 20
</DataArray>
<DataArray type="Int64" Name="offsets" format="ascii">
2
4
6
8
10
12
14
16
18
20
</DataArray>
<DataArray type="UInt8" Name="types" format="ascii">
3
3
3
3
3
3
3
3
3
3
</DataArray>
</Cells>
</Piece>
</UnstructuredGrid>
</VTKFile>
