<?xml version="1.0"?>
<VTKFile type="UnstructuredGrid" version="0.1" byte_order="LittleEndian" compressor="vtkZLibDataCompressor">
<UnstructuredGrid>
<Piece NumberOfPoints="11" NumberOfCells="10">
<PointData>
<DataArray type="Float64" Name="displacement" NumberOfComponents="3" format="ascii" >
0.0 0.0  0.
21.822048801350608 -14.036457994053873  0.
42.34417138465619 -25.65632076596878  0.
60.20671322545025 -33.6970895130446  0.
74.78604422323589 -38.67419746480784  0.
87.03745247909441 -42.04859701600168  0.
84.6201830052651 -52.45336472549758  0.
84.14469307725359 -53.3179179270721  0.
74.89111181917119 -35.866228171945046  0.
43.42249907997493 -13.909263475066064  0.
0.0 0.0  0.
</DataArray>
</PointData>
<CellData>
</CellData>
<Points>
<DataArray type="Float64" Name="Points" NumberOfComponents="3" format="ascii">
0.0 0.0 0.0
0.0 24.0 0.0
0.0 48.0 0.0
0.0 72.0 0.0
0.0 96.0 0.0
0.0 120.0 0.0
24.0 120.0 0.0
48.0 120.0 0.0
72.0 120.0 0.0
96.0 120.0 0.0
120.0 120.0 0.0
</DataArray>
</Points>
<Cells>
<DataArray type="Int64" Name="connectivity" format="ascii">
0 1
1 2
2 3
3 4
4 5
5 6
6 7
7 8
8 9
9 10
</DataArray>
<DataArray type="Int64" Name="offsets" format="ascii">
2
4
6
8
10
12
14
16
18
20
</DataArray>
<DataArray type="UInt8" Name="types" format="ascii">
3
3
3
3
3
3
3
3
3
3
</DataArray>
</Cells>
</Piece>
</UnstructuredGrid>
</VTKFile>
