<?xml version="1.0"?>
<VTKFile type="UnstructuredGrid" version="0.1" byte_order="LittleEndian" compressor="vtkZLibDataCompressor">
<UnstructuredGrid>
<Piece NumberOfPoints="21" NumberOfCells="10">
<PointData>
<DataArray type="Float64" Name="displacement" NumberOfComponents="3" format="ascii" >
0.0 0.0  0.
-0.4383004302334306 0.0  0.
53.757179919148506 -60.20748245206882  0.
-1.2868219875383458 0.0  0.
104.32354742645184 -113.51725637159522  0.
-2.0047594577825665 0.0  0.
148.157316054644 -153.67908110154238  0.
-2.3238796190687814 0.0  0.
181.104128856254 -176.6148291332984  0.
-1.6817821738438903 0.0  0.
198.98496671954138 -183.89254625425713  0.
-0.09134955245631576 0.0  0.
198.45176454656502 -186.21237624193822  0.
3.4973151480246316 0.0  0.
184.20129878270885 -161.38435155973696  0.
3.675554141159783 0.0  0.
142.1156433594023 -116.66971926106856  0.
2.1674212944632725 0.0  0.
76.75675496289689 -60.69759957029813  0.
0.684445755468066 0.0  0.
0.0 0.0  0.
</DataArray>
</PointData>
<CellData>
</CellData>
<Points>
<DataArray type="Float64" Name="Points" NumberOfComponents="3" format="ascii">
0.0 0.0 0.0
0.0 12.0 0.0
0.0 24.0 0.0
0.0 36.0 0.0
0.0 48.0 0.0
0.0 60.0 0.0
0.0 72.0 0.0
0.0 84.0 0.0
0.0 96.0 0.0
0.0 108.0 0.0
0.0 120.0 0.0
12.0 120.0 0.0
24.0 120.0 0.0
36.0 120.0 0.0
48.0 120.0 0.0
60.0 120.0 0.0
72.0 120.0 0.0
84.0 120.0 0.0
96.0 120.0 0.0
108.0 120.0 0.0
120.0 120.0 0.0
</DataArray>
</Points>
<Cells>
<DataArray type="Int64" Name="connectivity" format="ascii">
0 2
2 4
4 6
6 8
8 10
10 12
12 14
14 16
16 18
18 20
</DataArray>
<DataArray type="Int64" Name="offsets" format="ascii">
2
4
6
8
10
12
14
16
18
20
</DataArray>
<DataArray type="UInt8" Name="types" format="ascii">
3
3
3
3
3
3
3
3
3
3
</DataArray>
</Cells>
</Piece>
</UnstructuredGrid>
</VTKFile>
