<?xml version="1.0"?>
<VTKFile type="UnstructuredGrid" version="0.1" byte_order="LittleEndian" compressor="vtkZLibDataCompressor">
<UnstructuredGrid>
<Piece NumberOfPoints="11" NumberOfCells="10">
<PointData>
<DataArray type="Float64" Name="displacement" NumberOfComponents="3" format="ascii" >
0.0 0.0  0.
21.027098198072615 -12.452630071612674  0.
40.78417018119758 -22.87456723734046  0.
58.15132527289349 -30.36046009609931  0.
72.87040286842519 -35.431723429552115  0.
86.07429181642128 -39.39932949131045  0.
82.86190293667168 -51.31609350642692  0.
82.26740003718177 -53.551929884042494  0.
73.69030537957457 -36.73456977802853  0.
42.95079013078174 -14.546872372271125  0.
0.0 0.0  0.
</DataArray>
</PointData>
<CellData>
</CellData>
<Points>
<DataArray type="Float64" Name="Points" NumberOfComponents="3" format="ascii">
0.0 0.0 0.0
0.0 24.0 0.0
0.0 48.0 0.0
0.0 72.0 0.0
0.0 96.0 0.0
0.0 120.0 0.0
24.0 120.0 0.0
48.0 120.0 0.0
72.0 120.0 0.0
96.0 120.0 0.0
120.0 120.0 0.0
</DataArray>
</Points>
<Cells>
<DataArray type="Int64" Name="connectivity" format="ascii">
0 1
1 2
2 3
3 4
4 5
5 6
6 7
7 8
8 9
9 10
</DataArray>
<DataArray type="Int64" Name="offsets" format="ascii">
2
4
6
8
10
12
14
16
18
20
</DataArray>
<DataArray type="UInt8" Name="types" format="ascii">
3
3
3
3
3
3
3
3
3
3
</DataArray>
</Cells>
</Piece>
</UnstructuredGrid>
</VTKFile>
