<?xml version="1.0"?>
<VTKFile type="UnstructuredGrid" version="0.1" byte_order="LittleEndian" compressor="vtkZLibDataCompressor">
<UnstructuredGrid>
<Piece NumberOfPoints="11" NumberOfCells="10">
<PointData>
<DataArray type="Float64" Name="displacement" NumberOfComponents="3" format="ascii" >
0.0 0.0  0.
22.061429166690413 -33.41053540645608  0.
45.56055655712576 -61.71318033771182  0.
68.66230998172898 -80.18886218000259  0.
85.6576945520911 -87.69363848584639  0.
91.82262300647488 -88.75733933342372  0.
91.02423118329304 -83.69746410169527  0.
84.05912895253506 -67.29394303683999  0.
65.29806877756242 -44.18540700524796  0.
35.49627207875522 -21.044623101066428  0.
0.0 0.0  0.
</DataArray>
</PointData>
<CellData>
</CellData>
<Points>
<DataArray type="Float64" Name="Points" NumberOfComponents="3" format="ascii">
0.0 0.0 0.0
0.0 24.0 0.0
0.0 48.0 0.0
0.0 72.0 0.0
0.0 96.0 0.0
0.0 120.0 0.0
24.0 120.0 0.0
48.0 120.0 0.0
72.0 120.0 0.0
96.0 120.0 0.0
120.0 120.0 0.0
</DataArray>
</Points>
<Cells>
<DataArray type="Int64" Name="connectivity" format="ascii">
0 1
1 2
2 3
3 4
4 5
5 6
6 7
7 8
8 9
9 10
</DataArray>
<DataArray type="Int64" Name="offsets" format="ascii">
2
4
6
8
10
12
14
16
18
20
</DataArray>
<DataArray type="UInt8" Name="types" format="ascii">
3
3
3
3
3
3
3
3
3
3
</DataArray>
</Cells>
</Piece>
</UnstructuredGrid>
</VTKFile>
