<?xml version="1.0"?>
<VTKFile type="UnstructuredGrid" version="0.1" byte_order="LittleEndian" compressor="vtkZLibDataCompressor">
<UnstructuredGrid>
<Piece NumberOfPoints="21" NumberOfCells="10">
<PointData>
<DataArray type="Float64" Name="displacement" NumberOfComponents="3" format="ascii" >
0.0 0.0  0.
-5.4814965521863125e-05 0.0  0.
-0.28378745784612586 -0.002149514808654543  0.
-0.00011963803392959932 0.0  0.
-0.4931981661589852 -0.0035537488094017048  0.
-5.7340866889908744e-05 0.0  0.
-0.556352537805702 -0.004162795595085872  0.
0.0001935427665141521 0.0  0.
-0.4062862107286836 -0.005204864815325745  0.
0.0006630886560521917 0.0  0.
0.01678773544813075 -0.009559049559602495  0.
-0.00024336808903974202 0.0  0.
0.009149966360655104 -0.6123677735299016  0.
-0.000614412624615124 0.0  0.
0.007239441415911737 -0.8858882911693774  0.
0.00013936112173971757 0.0  0.
0.006864354839309253 -0.7940485912798035  0.
0.00031688641937181354 0.0  0.
0.004416983732642714 -0.45812298918884653  0.
0.00014470630597712824 0.0  0.
0.0 0.0  0.
</DataArray>
</PointData>
<CellData>
</CellData>
<Points>
<DataArray type="Float64" Name="Points" NumberOfComponents="3" format="ascii">
0.0 0.0 0.0
0.0 12.0 0.0
0.0 24.0 0.0
0.0 36.0 0.0
0.0 48.0 0.0
0.0 60.0 0.0
0.0 72.0 0.0
0.0 84.0 0.0
0.0 96.0 0.0
0.0 108.0 0.0
0.0 120.0 0.0
12.0 120.0 0.0
24.0 120.0 0.0
36.0 120.0 0.0
48.0 120.0 0.0
60.0 120.0 0.0
72.0 120.0 0.0
84.0 120.0 0.0
96.0 120.0 0.0
108.0 120.0 0.0
120.0 120.0 0.0
</DataArray>
</Points>
<Cells>
<DataArray type="Int64" Name="connectivity" format="ascii">
0 2
2 4
4 6
6 8
8 10
10 12
12 14
14 16
16 18
18 20
</DataArray>
<DataArray type="Int64" Name="offsets" format="ascii">
2
4
6
8
10
12
14
16
18
20
</DataArray>
<DataArray type="UInt8" Name="types" format="ascii">
3
3
3
3
3
3
3
3
3
3
</DataArray>
</Cells>
</Piece>
</UnstructuredGrid>
</VTKFile>
