<?xml version="1.0"?>
<VTKFile type="UnstructuredGrid" version="0.1" byte_order="LittleEndian" compressor="vtkZLibDataCompressor">
<UnstructuredGrid>
<Piece NumberOfPoints="21" NumberOfCells="10">
<PointData>
<DataArray type="Float64" Name="displacement" NumberOfComponents="3" format="ascii" >
0.0 0.0  0.
0.14057682654012418 0.0  0.
13.412362883776515 -3.7604215358424478  0.
0.47544269599698236 0.0  0.
30.61721456777961 -9.9820801382629  0.
0.8169713399868862 0.0  0.
53.901659205626046 -21.362166955628755  0.
0.8661714665500461 0.0  0.
83.32871422429236 -39.46410661687461  0.
0.40144817753473944 0.0  0.
116.66718535625529 -62.634332885273864  0.
-1.7757251337570268 0.0  0.
98.90408641466968 -91.62854790038719  0.
-1.5472010687329962 0.0  0.
93.81901657075 -105.69270330186527  0.
1.8792789233137204 0.0  0.
87.51841855052204 -89.90213322883095  0.
4.356695471664422 0.0  0.
57.25807919749523 -52.35743597124229  0.
2.4639143760062394 0.0  0.
0.0 0.0  0.
</DataArray>
</PointData>
<CellData>
</CellData>
<Points>
<DataArray type="Float64" Name="Points" NumberOfComponents="3" format="ascii">
0.0 0.0 0.0
0.0 12.0 0.0
0.0 24.0 0.0
0.0 36.0 0.0
0.0 48.0 0.0
0.0 60.0 0.0
0.0 72.0 0.0
0.0 84.0 0.0
0.0 96.0 0.0
0.0 108.0 0.0
0.0 120.0 0.0
12.0 120.0 0.0
24.0 120.0 0.0
36.0 120.0 0.0
48.0 120.0 0.0
60.0 120.0 0.0
72.0 120.0 0.0
84.0 120.0 0.0
96.0 120.0 0.0
108.0 120.0 0.0
120.0 120.0 0.0
</DataArray>
</Points>
<Cells>
<DataArray type="Int64" Name="connectivity" format="ascii">
0 2
2 4
4 6
6 8
8 10
10 12
12 14
14 16
16 18
18 20
</DataArray>
<DataArray type="Int64" Name="offsets" format="ascii">
2
4
6
8
10
12
14
16
18
20
</DataArray>
<DataArray type="UInt8" Name="types" format="ascii">
3
3
3
3
3
3
3
3
3
3
</DataArray>
</Cells>
</Piece>
</UnstructuredGrid>
</VTKFile>
