<?xml version="1.0"?>
<VTKFile type="UnstructuredGrid" version="0.1" byte_order="LittleEndian" compressor="vtkZLibDataCompressor">
<UnstructuredGrid>
<Piece NumberOfPoints="11" NumberOfCells="10">
<PointData>
<DataArray type="Float64" Name="displacement" NumberOfComponents="3" format="ascii" >
0.0 0.0  0.
2.019571416973679 -0.12365548972608405  0.
11.244199335806067 -2.173709019286773  0.
29.207530175197185 -10.571419568436633  0.
51.522026323373424 -25.891016876202617  0.
74.21874087363784 -42.177468889104716  0.
64.73755067501698 -60.86522495289345  0.
63.70210099128894 -63.34907944385671  0.
55.45846519374296 -46.26289496335607  0.
32.039726138039114 -22.57739723310401  0.
0.0 0.0  0.
</DataArray>
</PointData>
<CellData>
</CellData>
<Points>
<DataArray type="Float64" Name="Points" NumberOfComponents="3" format="ascii">
0.0 0.0 0.0
0.0 24.0 0.0
0.0 48.0 0.0
0.0 72.0 0.0
0.0 96.0 0.0
0.0 120.0 0.0
24.0 120.0 0.0
48.0 120.0 0.0
72.0 120.0 0.0
96.0 120.0 0.0
120.0 120.0 0.0
</DataArray>
</Points>
<Cells>
<DataArray type="Int64" Name="connectivity" format="ascii">
0 1
1 2
2 3
3 4
4 5
5 6
6 7
7 8
8 9
9 10
</DataArray>
<DataArray type="Int64" Name="offsets" format="ascii">
2
4
6
8
10
12
14
16
18
20
</DataArray>
<DataArray type="UInt8" Name="types" format="ascii">
3
3
3
3
3
3
3
3
3
3
</DataArray>
</Cells>
</Piece>
</UnstructuredGrid>
</VTKFile>
