<?xml version="1.0"?>
<VTKFile type="UnstructuredGrid" version="0.1" byte_order="LittleEndian" compressor="vtkZLibDataCompressor">
<UnstructuredGrid>
<Piece NumberOfPoints="21" NumberOfCells="10">
<PointData>
<DataArray type="Float64" Name="displacement" NumberOfComponents="3" format="ascii" >
0.0 0.0  0.
-0.21844375025099863 0.0  0.
-8.524237969571573 -1.564966707791977  0.
-0.08516405484346143 0.0  0.
-10.773939550610994 -1.8390735503429785  0.
0.8817083131238183 0.0  0.
1.4731148138994252 -5.339106186639577  0.
1.4026704065994868 0.0  0.
25.694733462733335 -17.78755126450202  0.
0.1538877711583825 0.0  0.
55.59415238398004 -36.42095732325595  0.
-1.7372914558435495 0.0  0.
43.18650023670025 -60.48230186419098  0.
-0.8059252927356938 0.0  0.
40.626575021376006 -70.35310509314502  0.
0.9428392213673399 0.0  0.
37.42490828381195 -59.02964193797114  0.
1.7351768780269765 0.0  0.
23.86781523250334 -33.816095723484786  0.
0.8626574095862312 0.0  0.
0.0 0.0  0.
</DataArray>
</PointData>
<CellData>
</CellData>
<Points>
<DataArray type="Float64" Name="Points" NumberOfComponents="3" format="ascii">
0.0 0.0 0.0
0.0 12.0 0.0
0.0 24.0 0.0
0.0 36.0 0.0
0.0 48.0 0.0
0.0 60.0 0.0
0.0 72.0 0.0
0.0 84.0 0.0
0.0 96.0 0.0
0.0 108.0 0.0
0.0 120.0 0.0
12.0 120.0 0.0
24.0 120.0 0.0
36.0 120.0 0.0
48.0 120.0 0.0
60.0 120.0 0.0
72.0 120.0 0.0
84.0 120.0 0.0
96.0 120.0 0.0
108.0 120.0 0.0
120.0 120.0 0.0
</DataArray>
</Points>
<Cells>
<DataArray type="Int64" Name="connectivity" format="ascii">
0 2
2 4
4 6
6 8
8 10
10 12
12 14
14 16
16 18
18 20
</DataArray>
<DataArray type="Int64" Name="offsets" format="ascii">
2
4
6
8
10
12
14
16
18
20
</DataArray>
<DataArray type="UInt8" Name="types" format="ascii">
3
3
3
3
3
3
3
3
3
3
</DataArray>
</Cells>
</Piece>
</UnstructuredGrid>
</VTKFile>
