# vtk DataFile Version 2.0
untitled.msh - /Users/paulocachim/MyFiles/github/ofempy/tests/untitled.msh, Created by Gmsh 4.12.2 
ASCII
DATASET UNSTRUCTURED_GRID
POINTS 52 double
0 0 0
1 0 0
1 1 0
0.1249999999997731 0 0
0.2499999999994107 0 0
0.374999999999046 0 0
0.4999999999986922 0 0
0.6249999999990107 0 0
0.7499999999993404 0 0
0.8749999999996702 0 0
1 0.1249999999997731 0
1 0.2499999999994107 0
1 0.374999999999046 0
1 0.4999999999986922 0
1 0.6249999999990107 0
1 0.7499999999993404 0
1 0.8749999999996702 0
0.8999999999995836 0.8999999999995836 0
0.7999999999999998 0.7999999999999998 0
0.7000000000006934 0.7000000000006934 0
0.6000000000013869 0.6000000000013869 0
0.5000000000020587 0.5000000000020587 0
0.4000000000016644 0.4000000000016644 0
0.3000000000012483 0.3000000000012483 0
0.2000000000008322 0.2000000000008322 0
0.100000000000416 0.100000000000416 0
0.8946399137755333 0.3069197681428554 0
0.5371709787493768 0.3650912148075237 0
0.7018643898793449 0.112201489926317 0
0.7366025403788833 0.5633974596231968 0
0.433868990753553 0.1001478238050468 0
0.8689788301800729 0.5563424612019198 0
0.6354538980851356 0.4645799637166122 0
0.6828037963686989 0.3282808761253591 0
0.5696487512372377 0.2401492073677637 0
0.769811068035102 0.4486032282544601 0
0.4431643875576202 0.2694699378524722 0
0.8995558867722415 0.1871449723452299 0
0.7817184985493333 0.233777947041763 0
0.894519048172199 0.6963488252383887 0
0.3056049536586914 0.1026361347472565 0
0.5678210262941258 0.1145784720301852 0
0.8893005341381466 0.4213973444096295 0
0.8195448111883705 0.1039990528971439 0
0.9086192757274203 0.7974129958991337 0
0.2017642094507291 0.08972566579843361 0
0.6662997872901755 0.2083920011416231 0
0.3570612555880689 0.2014981137376587 0
0.909130091930294 0.09086990806955375 0
0.7966480225741488 0.657601132568435 0
0.8023733928381709 0.341518608860804 0
0.4816524372169555 0.1828904811057606 0

CELLS 102 382
2 0 3
2 3 4
2 4 5
2 5 6
2 6 7
2 7 8
2 8 9
2 9 1
2 1 10
2 10 11
2 11 12
2 12 13
2 13 14
2 14 15
2 15 16
2 16 2
2 2 17
2 17 18
2 18 19
2 19 20
2 20 21
2 21 22
2 22 23
2 23 24
2 24 25
2 25 0
3 31 29 35
3 31 35 42
3 38 28 43
3 28 38 46
3 3 25 0
3 17 16 2
3 41 28 46
3 37 38 43
3 34 41 46
3 29 32 35
3 32 33 35
3 29 20 32
3 22 23 36
3 29 31 49
3 32 27 33
3 24 40 47
3 33 27 34
3 21 27 32
3 19 20 29
3 25 3 45
3 16 17 44
3 21 22 27
3 20 21 32
3 27 22 36
3 3 4 45
3 15 16 44
3 34 27 36
3 39 18 49
3 10 11 37
3 24 25 45
3 17 18 44
3 11 12 26
3 7 8 28
3 6 7 41
3 13 14 31
3 12 13 42
3 11 26 37
3 23 24 47
3 5 6 30
3 47 30 51
3 37 26 38
3 14 15 39
3 4 5 40
3 7 28 41
3 26 12 42
3 13 31 42
3 30 6 41
3 31 14 39
3 28 8 43
3 18 19 49
3 5 30 40
3 8 9 43
3 36 47 51
3 35 33 50
3 1 10 48
3 9 1 48
3 33 38 50
3 18 39 44
3 40 24 45
3 38 33 46
3 31 39 49
3 26 42 50
3 36 23 47
3 33 34 46
3 40 30 47
3 42 35 50
3 19 29 49
3 39 15 44
3 4 40 45
3 34 36 51
3 10 37 48
3 38 26 50
3 43 9 48
3 37 43 48
3 30 41 51
3 41 34 51

CELL_TYPES 102
3
3
3
3
3
3
3
3
3
3
3
3
3
3
3
3
3
3
3
3
3
3
3
3
3
3
5
5
5
5
5
5
5
5
5
5
5
5
5
5
5
5
5
5
5
5
5
5
5
5
5
5
5
5
5
5
5
5
5
5
5
5
5
5
5
5
5
5
5
5
5
5
5
5
5
5
5
5
5
5
5
5
5
5
5
5
5
5
5
5
5
5
5
5
5
5
5
5
5
5
5
5

CELL_DATA 102
SCALARS CellEntityIds int 1
LOOKUP_TABLE default
1
1
1
1
1
1
1
1
1
1
1
1
1
1
1
1
1
1
1
1
1
1
1
1
1
1
2
2
2
2
2
2
2
2
2
2
2
2
2
2
2
2
2
2
2
2
2
2
2
2
2
2
2
2
2
2
2
2
2
2
2
2
2
2
2
2
2
2
2
2
2
2
2
2
2
2
2
2
2
2
2
2
2
2
2
2
2
2
2
2
2
2
2
2
2
2
2
2
2
2
2
2
