# vtk DataFile Version 2.0
untitled.msh - /Users/paulocachim/MyFiles/github/ofempy/tests/untitled.msh, Created by Gmsh 4.12.2 
ASCII
DATASET UNSTRUCTURED_GRID
POINTS 52 double
0.1249999999997731 0 0
0.2499999999994107 0 0
0.374999999999046 0 0
0.4999999999986922 0 0
0.6249999999990107 0 0
0.7499999999993404 0 0
0.8749999999996702 0 0
1 0.1249999999997731 0
1 0.2499999999994107 0
1 0.374999999999046 0
1 0.4999999999986922 0
1 0.6249999999990107 0
1 0.7499999999993404 0
1 0.8749999999996702 0
0.8946399137755333 0.3069197681428554 0
0.5371709787493768 0.3650912148075237 0
0.7018643898793449 0.112201489926317 0
0.7366025403788833 0.5633974596231968 0
0.433868990753553 0.1001478238050468 0
0.8689788301800729 0.5563424612019198 0
0.6354538980851356 0.4645799637166122 0
0.6828037963686989 0.3282808761253591 0
0.5696487512372377 0.2401492073677637 0
0.769811068035102 0.4486032282544601 0
0.4431643875576202 0.2694699378524722 0
0.8995558867722415 0.1871449723452299 0
0.7817184985493333 0.233777947041763 0
0.894519048172199 0.6963488252383887 0
0.3056049536586914 0.1026361347472565 0
0.5678210262941258 0.1145784720301852 0
0.8893005341381466 0.4213973444096295 0
0.8195448111883705 0.1039990528971439 0
0.9086192757274203 0.7974129958991337 0
0.2017642094507291 0.08972566579843361 0
0.6662997872901755 0.2083920011416231 0
0.3570612555880689 0.2014981137376587 0
0.909130091930294 0.09086990806955375 0
0.7966480225741488 0.657601132568435 0
0.8023733928381709 0.341518608860804 0
0.4816524372169555 0.1828904811057606 0
0 0 0
1 0 0
1 1 0
0.8999999999995836 0.8999999999995836 0
0.7999999999999998 0.7999999999999998 0
0.7000000000006934 0.7000000000006934 0
0.6000000000013869 0.6000000000013869 0
0.5000000000020587 0.5000000000020587 0
0.4000000000016644 0.4000000000016644 0
0.3000000000012483 0.3000000000012483 0
0.2000000000008322 0.2000000000008322 0
0.100000000000416 0.100000000000416 0

CELLS 102 382
2 40 0
2 0 1
2 1 2
2 2 3
2 3 4
2 4 5
2 5 6
2 6 41
2 41 7
2 7 8
2 8 9
2 9 10
2 10 11
2 11 12
2 12 13
2 13 42
2 42 43
2 43 44
2 44 45
2 45 46
2 46 47
2 47 48
2 48 49
2 49 50
2 50 51
2 51 40
3 19 17 23
3 19 23 30
3 26 16 31
3 16 26 34
3 0 51 40
3 43 13 42
3 29 16 34
3 25 26 31
3 22 29 34
3 17 20 23
3 20 21 23
3 17 46 20
3 48 49 24
3 17 19 37
3 20 15 21
3 50 28 35
3 21 15 22
3 47 15 20
3 45 46 17
3 51 0 33
3 13 43 32
3 47 48 15
3 46 47 20
3 15 48 24
3 0 1 33
3 12 13 32
3 22 15 24
3 27 44 37
3 7 8 25
3 50 51 33
3 43 44 32
3 8 9 14
3 4 5 16
3 3 4 29
3 10 11 19
3 9 10 30
3 8 14 25
3 49 50 35
3 2 3 18
3 35 18 39
3 25 14 26
3 11 12 27
3 1 2 28
3 4 16 29
3 14 9 30
3 10 19 30
3 18 3 29
3 19 11 27
3 16 5 31
3 44 45 37
3 2 18 28
3 5 6 31
3 24 35 39
3 23 21 38
3 41 7 36
3 6 41 36
3 21 26 38
3 44 27 32
3 28 50 33
3 26 21 34
3 19 27 37
3 14 30 38
3 24 49 35
3 21 22 34
3 28 18 35
3 30 23 38
3 45 17 37
3 27 12 32
3 1 28 33
3 22 24 39
3 7 25 36
3 26 14 38
3 31 6 36
3 25 31 36
3 18 29 39
3 29 22 39

CELL_TYPES 102
3
3
3
3
3
3
3
3
3
3
3
3
3
3
3
3
3
3
3
3
3
3
3
3
3
3
5
5
5
5
5
5
5
5
5
5
5
5
5
5
5
5
5
5
5
5
5
5
5
5
5
5
5
5
5
5
5
5
5
5
5
5
5
5
5
5
5
5
5
5
5
5
5
5
5
5
5
5
5
5
5
5
5
5
5
5
5
5
5
5
5
5
5
5
5
5
5
5
5
5
5
5

CELL_DATA 102
SCALARS CellEntityIds int 1
LOOKUP_TABLE default
3
3
3
3
3
3
3
3
3
3
3
3
3
3
3
3
3
3
3
3
3
3
3
3
3
3
4
4
4
4
4
4
4
4
4
4
4
4
4
4
4
4
4
4
4
4
4
4
4
4
4
4
4
4
4
4
4
4
4
4
4
4
4
4
4
4
4
4
4
4
4
4
4
4
4
4
4
4
4
4
4
4
4
4
4
4
4
4
4
4
4
4
4
4
4
4
4
4
4
4
4
4
