<?xml version="1.0"?>
<VTKFile type="UnstructuredGrid" version="0.1" byte_order="LittleEndian" compressor="vtkZLibDataCompressor">
<UnstructuredGrid>
<Piece NumberOfPoints="21" NumberOfCells="10">
<PointData>
<DataArray type="Float64" Name="displacement" NumberOfComponents="3" format="ascii" >
0.0 0.0  0.
0.1366074960795648 0.0  0.
18.062596209310488 -6.806083390795312  0.
0.4159927314821906 0.0  0.
38.830746220177666 -15.822966819933246  0.
0.6415204287735374 0.0  0.
64.00016919109255 -29.067978228346043  0.
0.6459783478890833 0.0  0.
93.68425700648265 -47.46092303417053  0.
0.3231222076626954 0.0  0.
126.37038223919453 -69.7305494003761  0.
-1.6758631539953057 0.0  0.
109.42233672783149 -98.0557183701913  0.
-1.5002275791172048 0.0  0.
104.55304646115327 -111.7335033513319  0.
2.094345933543019 0.0  0.
97.43798771242903 -94.87560497658951  0.
4.828483331894025 0.0  0.
63.700507554830494 -55.22465438137307  0.
2.7407745594850734 0.0  0.
0.0 0.0  0.
</DataArray>
</PointData>
<CellData>
</CellData>
<Points>
<DataArray type="Float64" Name="Points" NumberOfComponents="3" format="ascii">
0.0 0.0 0.0
0.0 12.0 0.0
0.0 24.0 0.0
0.0 36.0 0.0
0.0 48.0 0.0
0.0 60.0 0.0
0.0 72.0 0.0
0.0 84.0 0.0
0.0 96.0 0.0
0.0 108.0 0.0
0.0 120.0 0.0
12.0 120.0 0.0
24.0 120.0 0.0
36.0 120.0 0.0
48.0 120.0 0.0
60.0 120.0 0.0
72.0 120.0 0.0
84.0 120.0 0.0
96.0 120.0 0.0
108.0 120.0 0.0
120.0 120.0 0.0
</DataArray>
</Points>
<Cells>
<DataArray type="Int64" Name="connectivity" format="ascii">
0 2
2 4
4 6
6 8
8 10
10 12
12 14
14 16
16 18
18 20
</DataArray>
<DataArray type="Int64" Name="offsets" format="ascii">
2
4
6
8
10
12
14
16
18
20
</DataArray>
<DataArray type="UInt8" Name="types" format="ascii">
3
3
3
3
3
3
3
3
3
3
</DataArray>
</Cells>
</Piece>
</UnstructuredGrid>
</VTKFile>
