<?xml version="1.0"?>
<VTKFile type="UnstructuredGrid" version="0.1" byte_order="LittleEndian" compressor="vtkZLibDataCompressor">
<UnstructuredGrid>
<Piece NumberOfPoints="21" NumberOfCells="10">
<PointData>
<DataArray type="Float64" Name="displacement" NumberOfComponents="3" format="ascii" >
0.0 0.0  0.
-0.6581273295621645 0.0  0.
48.0940043319142 -48.20428585114717  0.
-1.5981575019630425 0.0  0.
91.41257951394391 -87.38942919485585  0.
-1.725997082053244 0.0  0.
126.5732808211592 -113.30440472341628  0.
-1.225464279239466 0.0  0.
152.50045322248954 -127.45744091725412  0.
-0.5968446176461963 0.0  0.
170.59651542998023 -134.3539935094621  0.
-0.5508171845158347 0.0  0.
168.1493750724547 -144.73523324401685  0.
0.04393508410625881 0.0  0.
167.87544681519964 -144.79411562582587  0.
3.717785115212133 0.0  0.
152.94030673317334 -119.43850762033908  0.
6.799920275655569 0.0  0.
97.0996749158491 -68.20540236952695  0.
3.595304533393266 0.0  0.
0.0 0.0  0.
</DataArray>
</PointData>
<CellData>
</CellData>
<Points>
<DataArray type="Float64" Name="Points" NumberOfComponents="3" format="ascii">
0.0 0.0 0.0
0.0 12.0 0.0
0.0 24.0 0.0
0.0 36.0 0.0
0.0 48.0 0.0
0.0 60.0 0.0
0.0 72.0 0.0
0.0 84.0 0.0
0.0 96.0 0.0
0.0 108.0 0.0
0.0 120.0 0.0
12.0 120.0 0.0
24.0 120.0 0.0
36.0 120.0 0.0
48.0 120.0 0.0
60.0 120.0 0.0
72.0 120.0 0.0
84.0 120.0 0.0
96.0 120.0 0.0
108.0 120.0 0.0
120.0 120.0 0.0
</DataArray>
</Points>
<Cells>
<DataArray type="Int64" Name="connectivity" format="ascii">
0 2
2 4
4 6
6 8
8 10
10 12
12 14
14 16
16 18
18 20
</DataArray>
<DataArray type="Int64" Name="offsets" format="ascii">
2
4
6
8
10
12
14
16
18
20
</DataArray>
<DataArray type="UInt8" Name="types" format="ascii">
3
3
3
3
3
3
3
3
3
3
</DataArray>
</Cells>
</Piece>
</UnstructuredGrid>
</VTKFile>
