<?xml version="1.0"?>
<VTKFile type="UnstructuredGrid" version="0.1" byte_order="LittleEndian" compressor="vtkZLibDataCompressor">
<UnstructuredGrid>
<Piece NumberOfPoints="21" NumberOfCells="10">
<PointData>
<DataArray type="Float64" Name="displacement" NumberOfComponents="3" format="ascii" >
0.0 0.0  0.
-0.0606108055669578 0.0  0.
-6.9088547975844 -1.0046869849614604  0.
-0.08767964789835307 0.0  0.
-11.03887162077649 -1.3959205526955942  0.
0.014708546926858624 0.0  0.
-10.426687144214684 -1.447571278770867  0.
0.13366793457949813 0.0  0.
-4.878348202010492 -2.132968624553204  0.
0.12722677672876437 0.0  0.
4.2192897901390785 -3.8751883831729352  0.
-0.17296947130132576 0.0  0.
2.622785073986351 -12.555703844479714  0.
-0.11319743365510888 0.0  0.
2.2698365800763334 -16.28757544033937  0.
0.0516282554226587 0.0  0.
2.1279881771080595 -14.076766987481982  0.
0.09890113957721959 0.0  0.
1.3554732696999907 -8.058954322626832  0.
0.04591315274782765 0.0  0.
0.0 0.0  0.
</DataArray>
</PointData>
<CellData>
</CellData>
<Points>
<DataArray type="Float64" Name="Points" NumberOfComponents="3" format="ascii">
0.0 0.0 0.0
0.0 12.0 0.0
0.0 24.0 0.0
0.0 36.0 0.0
0.0 48.0 0.0
0.0 60.0 0.0
0.0 72.0 0.0
0.0 84.0 0.0
0.0 96.0 0.0
0.0 108.0 0.0
0.0 120.0 0.0
12.0 120.0 0.0
24.0 120.0 0.0
36.0 120.0 0.0
48.0 120.0 0.0
60.0 120.0 0.0
72.0 120.0 0.0
84.0 120.0 0.0
96.0 120.0 0.0
108.0 120.0 0.0
120.0 120.0 0.0
</DataArray>
</Points>
<Cells>
<DataArray type="Int64" Name="connectivity" format="ascii">
0 2
2 4
4 6
6 8
8 10
10 12
12 14
14 16
16 18
18 20
</DataArray>
<DataArray type="Int64" Name="offsets" format="ascii">
2
4
6
8
10
12
14
16
18
20
</DataArray>
<DataArray type="UInt8" Name="types" format="ascii">
3
3
3
3
3
3
3
3
3
3
</DataArray>
</Cells>
</Piece>
</UnstructuredGrid>
</VTKFile>
