<?xml version="1.0"?>
<VTKFile type="UnstructuredGrid" version="0.1" byte_order="LittleEndian" compressor="vtkZLibDataCompressor">
<UnstructuredGrid>
<Piece NumberOfPoints="21" NumberOfCells="10">
<PointData>
<DataArray type="Float64" Name="displacement" NumberOfComponents="3" format="ascii" >
0.0 0.0  0.
-0.6392906408730114 0.0  0.
54.99903647691244 -63.027868671720654  0.
-1.7363961655425857 0.0  0.
105.65296538755729 -116.55837311622658  0.
-2.324548880336542 0.0  0.
147.8656304130184 -153.87717790555342  0.
-2.1811668849059402 0.0  0.
178.1169600509944 -173.28183979798155  0.
-1.284031239614271 0.0  0.
194.17581142828251 -179.09666217551379  0.
-0.10871652037546994 0.0  0.
193.68462583531897 -181.61576828203573  0.
2.737138052107124 0.0  0.
182.62203300425023 -159.76773373237233  0.
3.9232821248273364 0.0  0.
145.65490990632222 -117.97080799479522  0.
3.0217590975370574 0.0  0.
81.06484450768039 -62.37154270928164  0.
1.1022720095741196 0.0  0.
0.0 0.0  0.
</DataArray>
</PointData>
<CellData>
</CellData>
<Points>
<DataArray type="Float64" Name="Points" NumberOfComponents="3" format="ascii">
0.0 0.0 0.0
0.0 12.0 0.0
0.0 24.0 0.0
0.0 36.0 0.0
0.0 48.0 0.0
0.0 60.0 0.0
0.0 72.0 0.0
0.0 84.0 0.0
0.0 96.0 0.0
0.0 108.0 0.0
0.0 120.0 0.0
12.0 120.0 0.0
24.0 120.0 0.0
36.0 120.0 0.0
48.0 120.0 0.0
60.0 120.0 0.0
72.0 120.0 0.0
84.0 120.0 0.0
96.0 120.0 0.0
108.0 120.0 0.0
120.0 120.0 0.0
</DataArray>
</Points>
<Cells>
<DataArray type="Int64" Name="connectivity" format="ascii">
0 2
2 4
4 6
6 8
8 10
10 12
12 14
14 16
16 18
18 20
</DataArray>
<DataArray type="Int64" Name="offsets" format="ascii">
2
4
6
8
10
12
14
16
18
20
</DataArray>
<DataArray type="UInt8" Name="types" format="ascii">
3
3
3
3
3
3
3
3
3
3
</DataArray>
</Cells>
</Piece>
</UnstructuredGrid>
</VTKFile>
