<?xml version="1.0"?>
<VTKFile type="UnstructuredGrid" version="0.1" byte_order="LittleEndian" compressor="vtkZLibDataCompressor">
<UnstructuredGrid>
<Piece NumberOfPoints="21" NumberOfCells="10">
<PointData>
<DataArray type="Float64" Name="displacement" NumberOfComponents="3" format="ascii" >
0.0 0.0  0.
-0.8416521574559716 0.0  0.
55.96547447233406 -65.26941499287904  0.
-2.1526862832233307 0.0  0.
106.49070313833454 -118.57129862587239  0.
-2.554567431019453 0.0  0.
147.0460953727855 -153.0946801294975  0.
-2.00988707256759 0.0  0.
174.8022308622061 -169.48951592501027  0.
-0.9794445273940338 0.0  0.
189.2162360199994 -174.13540094557007  0.
-0.11597758685437727 0.0  0.
188.77276308848502 -176.77052979436496  0.
2.1213562779514317 0.0  0.
180.29678650801299 -157.68000147822568  0.
3.9950077139523903 0.0  0.
148.0121381328542 -118.73716745883854  0.
3.81403714899333 0.0  0.
84.7203515290471 -63.754748959247706  0.
1.5537078100388548 0.0  0.
0.0 0.0  0.
</DataArray>
</PointData>
<CellData>
</CellData>
<Points>
<DataArray type="Float64" Name="Points" NumberOfComponents="3" format="ascii">
0.0 0.0 0.0
0.0 12.0 0.0
0.0 24.0 0.0
0.0 36.0 0.0
0.0 48.0 0.0
0.0 60.0 0.0
0.0 72.0 0.0
0.0 84.0 0.0
0.0 96.0 0.0
0.0 108.0 0.0
0.0 120.0 0.0
12.0 120.0 0.0
24.0 120.0 0.0
36.0 120.0 0.0
48.0 120.0 0.0
60.0 120.0 0.0
72.0 120.0 0.0
84.0 120.0 0.0
96.0 120.0 0.0
108.0 120.0 0.0
120.0 120.0 0.0
</DataArray>
</Points>
<Cells>
<DataArray type="Int64" Name="connectivity" format="ascii">
0 2
2 4
4 6
6 8
8 10
10 12
12 14
14 16
16 18
18 20
</DataArray>
<DataArray type="Int64" Name="offsets" format="ascii">
2
4
6
8
10
12
14
16
18
20
</DataArray>
<DataArray type="UInt8" Name="types" format="ascii">
3
3
3
3
3
3
3
3
3
3
</DataArray>
</Cells>
</Piece>
</UnstructuredGrid>
</VTKFile>
