<?xml version="1.0"?>
<VTKFile type="UnstructuredGrid" version="0.1" byte_order="LittleEndian" compressor="vtkZLibDataCompressor">
<UnstructuredGrid>
<Piece NumberOfPoints="21" NumberOfCells="10">
<PointData>
<DataArray type="Float64" Name="displacement" NumberOfComponents="3" format="ascii" >
0.0 0.0  0.
-1.190369026522604 0.0  0.
56.95454204513576 -67.6116340435223  0.
-2.7918382654273315 0.0  0.
106.6732280231082 -119.31723380088302  0.
-2.772877485945695 0.0  0.
144.09862679236443 -148.85732276811316  0.
-1.6608261693367323 0.0  0.
167.73531595096023 -160.8252698597118  0.
-0.5801632739119879 0.0  0.
179.6849355767055 -163.96125499532045  0.
-0.13448982248432345 0.0  0.
179.2746082441961 -167.0867371005881  0.
1.259901118333458 0.0  0.
174.4626297438494 -152.8073338406353  0.
3.843933853537148 0.0  0.
149.82060359236894 -119.02321730089652  0.
5.082151180367975 0.0  0.
89.8749155083507 -65.64706037846513  0.
2.42810205692338 0.0  0.
0.0 0.0  0.
</DataArray>
</PointData>
<CellData>
</CellData>
<Points>
<DataArray type="Float64" Name="Points" NumberOfComponents="3" format="ascii">
0.0 0.0 0.0
0.0 12.0 0.0
0.0 24.0 0.0
0.0 36.0 0.0
0.0 48.0 0.0
0.0 60.0 0.0
0.0 72.0 0.0
0.0 84.0 0.0
0.0 96.0 0.0
0.0 108.0 0.0
0.0 120.0 0.0
12.0 120.0 0.0
24.0 120.0 0.0
36.0 120.0 0.0
48.0 120.0 0.0
60.0 120.0 0.0
72.0 120.0 0.0
84.0 120.0 0.0
96.0 120.0 0.0
108.0 120.0 0.0
120.0 120.0 0.0
</DataArray>
</Points>
<Cells>
<DataArray type="Int64" Name="connectivity" format="ascii">
0 2
2 4
4 6
6 8
8 10
10 12
12 14
14 16
16 18
18 20
</DataArray>
<DataArray type="Int64" Name="offsets" format="ascii">
2
4
6
8
10
12
14
16
18
20
</DataArray>
<DataArray type="UInt8" Name="types" format="ascii">
3
3
3
3
3
3
3
3
3
3
</DataArray>
</Cells>
</Piece>
</UnstructuredGrid>
</VTKFile>
