<?xml version="1.0"?>
<VTKFile type="UnstructuredGrid" version="0.1" byte_order="LittleEndian" compressor="vtkZLibDataCompressor">
<UnstructuredGrid>
<Piece NumberOfPoints="21" NumberOfCells="10">
<PointData>
<DataArray type="Float64" Name="displacement" NumberOfComponents="3" format="ascii" >
0.0 0.0  0.
-1.4806951084155078 0.0  0.
56.67106355371809 -66.95781917555504  0.
-3.2242018386321583 0.0  0.
104.61224029839293 -115.13706026459683  0.
-2.742503629944151 0.0  0.
138.56930368637322 -139.5899200171876  0.
-1.281819013835668 0.0  0.
158.47724986231574 -148.12568640524233  0.
-0.30233825002453485 0.0  0.
168.7996238542887 -150.406435781841  0.
-0.16991283999275375 0.0  0.
168.2555534196681 -154.88019206044768  0.
0.591784180781966 0.0  0.
166.3071122921245 -146.09292200093955  0.
3.4273637357474023 0.0  0.
148.8712115215106 -118.0223012109827  0.
6.207294538371696 0.0  0.
93.57080841764345 -66.9551468331117  0.
3.421773586016504 0.0  0.
0.0 0.0  0.
</DataArray>
</PointData>
<CellData>
</CellData>
<Points>
<DataArray type="Float64" Name="Points" NumberOfComponents="3" format="ascii">
0.0 0.0 0.0
0.0 12.0 0.0
0.0 24.0 0.0
0.0 36.0 0.0
0.0 48.0 0.0
0.0 60.0 0.0
0.0 72.0 0.0
0.0 84.0 0.0
0.0 96.0 0.0
0.0 108.0 0.0
0.0 120.0 0.0
12.0 120.0 0.0
24.0 120.0 0.0
36.0 120.0 0.0
48.0 120.0 0.0
60.0 120.0 0.0
72.0 120.0 0.0
84.0 120.0 0.0
96.0 120.0 0.0
108.0 120.0 0.0
120.0 120.0 0.0
</DataArray>
</Points>
<Cells>
<DataArray type="Int64" Name="connectivity" format="ascii">
0 2
2 4
4 6
6 8
8 10
10 12
12 14
14 16
16 18
18 20
</DataArray>
<DataArray type="Int64" Name="offsets" format="ascii">
2
4
6
8
10
12
14
16
18
20
</DataArray>
<DataArray type="UInt8" Name="types" format="ascii">
3
3
3
3
3
3
3
3
3
3
</DataArray>
</Cells>
</Piece>
</UnstructuredGrid>
</VTKFile>
