<?xml version="1.0"?>
<VTKFile type="UnstructuredGrid" version="0.1" byte_order="LittleEndian" compressor="vtkZLibDataCompressor">
<UnstructuredGrid>
<Piece NumberOfPoints="21" NumberOfCells="10">
<PointData>
<DataArray type="Float64" Name="displacement" NumberOfComponents="3" format="ascii" >
0.0 0.0  0.
-0.02515269885393766 0.0  0.
-1.4429299540807483 -0.08295758658460303  0.
0.2564234970470079 0.0  0.
4.647524932834367 -0.9850408108259205  0.
0.9551865620649456 0.0  0.
20.81023900031548 -6.66654374374989  0.
1.308341678527598 0.0  0.
47.17667523800367 -21.315676782175437  0.
0.46393154471947157 0.0  0.
79.44735853416866 -43.031363129563445  0.
-1.837732966681936 0.0  0.
63.133604291846815 -70.76402927540461  0.
-1.286933901407278 0.0  0.
58.85075008483738 -83.75477755792575  0.
1.2279411017309254 0.0  0.
54.81705444944942 -71.21207873392224  0.
2.703485576904214 0.0  0.
35.667483125125734 -41.32737390163025  0.
1.4664891397300295 0.0  0.
0.0 0.0  0.
</DataArray>
</PointData>
<CellData>
</CellData>
<Points>
<DataArray type="Float64" Name="Points" NumberOfComponents="3" format="ascii">
0.0 0.0 0.0
0.0 12.0 0.0
0.0 24.0 0.0
0.0 36.0 0.0
0.0 48.0 0.0
0.0 60.0 0.0
0.0 72.0 0.0
0.0 84.0 0.0
0.0 96.0 0.0
0.0 108.0 0.0
0.0 120.0 0.0
12.0 120.0 0.0
24.0 120.0 0.0
36.0 120.0 0.0
48.0 120.0 0.0
60.0 120.0 0.0
72.0 120.0 0.0
84.0 120.0 0.0
96.0 120.0 0.0
108.0 120.0 0.0
120.0 120.0 0.0
</DataArray>
</Points>
<Cells>
<DataArray type="Int64" Name="connectivity" format="ascii">
0 2
2 4
4 6
6 8
8 10
10 12
12 14
14 16
16 18
18 20
</DataArray>
<DataArray type="Int64" Name="offsets" format="ascii">
2
4
6
8
10
12
14
16
18
20
</DataArray>
<DataArray type="UInt8" Name="types" format="ascii">
3
3
3
3
3
3
3
3
3
3
</DataArray>
</Cells>
</Piece>
</UnstructuredGrid>
</VTKFile>
