<?xml version="1.0"?>
<VTKFile type="UnstructuredGrid" version="0.1" byte_order="LittleEndian" compressor="vtkZLibDataCompressor">
<UnstructuredGrid>
<Piece NumberOfPoints="21" NumberOfCells="10">
<PointData>
<DataArray type="Float64" Name="displacement" NumberOfComponents="3" format="ascii" >
0.0 0.0  0.
0.05454936769302892 0.0  0.
3.236035925299611 -0.2417520316347557  0.
0.3916370786548556 0.0  0.
12.762824567306307 -2.25155935852314  0.
1.0102880133488332 0.0  0.
31.56266550397076 -9.81042524747537  0.
1.2318573575413916 0.0  0.
59.568382889096206 -26.281538267966294  0.
0.44539759891087 0.0  0.
92.90193768050354 -49.44774490917548  0.
-1.896179961989864 0.0  0.
75.44432150287898 -78.1547629466117  0.
-1.4217533970113134 0.0  0.
70.72303351619432 -91.775743757731  0.
1.4526059672807534 0.0  0.
65.92278928856244 -78.06474821737449  0.
3.2662187593394494 0.0  0.
42.992077220179105 -45.371163131538445  0.
1.7999864628419806 0.0  0.
0.0 0.0  0.
</DataArray>
</PointData>
<CellData>
</CellData>
<Points>
<DataArray type="Float64" Name="Points" NumberOfComponents="3" format="ascii">
0.0 0.0 0.0
0.0 12.0 0.0
0.0 24.0 0.0
0.0 36.0 0.0
0.0 48.0 0.0
0.0 60.0 0.0
0.0 72.0 0.0
0.0 84.0 0.0
0.0 96.0 0.0
0.0 108.0 0.0
0.0 120.0 0.0
12.0 120.0 0.0
24.0 120.0 0.0
36.0 120.0 0.0
48.0 120.0 0.0
60.0 120.0 0.0
72.0 120.0 0.0
84.0 120.0 0.0
96.0 120.0 0.0
108.0 120.0 0.0
120.0 120.0 0.0
</DataArray>
</Points>
<Cells>
<DataArray type="Int64" Name="connectivity" format="ascii">
0 2
2 4
4 6
6 8
8 10
10 12
12 14
14 16
16 18
18 20
</DataArray>
<DataArray type="Int64" Name="offsets" format="ascii">
2
4
6
8
10
12
14
16
18
20
</DataArray>
<DataArray type="UInt8" Name="types" format="ascii">
3
3
3
3
3
3
3
3
3
3
</DataArray>
</Cells>
</Piece>
</UnstructuredGrid>
</VTKFile>
