<?xml version="1.0"?>
<VTKFile type="UnstructuredGrid" version="0.1" byte_order="LittleEndian" compressor="vtkZLibDataCompressor">
<UnstructuredGrid>
<Piece NumberOfPoints="21" NumberOfCells="10">
<PointData>
<DataArray type="Float64" Name="displacement" NumberOfComponents="3" format="ascii" >
0.0 0.0  0.
-0.001525000069703176 0.0  0.
-1.380737103369773 -0.04168307605497754  0.
-0.0030382249857969245 0.0  0.
-2.3469937406003574 -0.06366895886360903  0.
-0.0008742771004497594 0.0  0.
-2.5378608010284402 -0.06779100351554936  0.
0.004892153229254537 0.0  0.
-1.6947214055530695 -0.0866262523600178  0.
0.011981776856682566 0.0  0.
0.29948465587036527 -0.17368110749927668  0.
-0.006303953157377561 0.0  0.
0.16676388471907239 -2.6906388374915764  0.
-0.010734049216406466 0.0  0.
0.13359812204137705 -3.8405335498181006  0.
0.0026456575982791233 0.0  0.
0.12703327052632546 -3.431536691399681  0.
0.005939170149038627 0.0  0.
0.08178752708258777 -1.9781434393393136  0.
0.002728678845561842 0.0  0.
0.0 0.0  0.
</DataArray>
</PointData>
<CellData>
</CellData>
<Points>
<DataArray type="Float64" Name="Points" NumberOfComponents="3" format="ascii">
0.0 0.0 0.0
0.0 12.0 0.0
0.0 24.0 0.0
0.0 36.0 0.0
0.0 48.0 0.0
0.0 60.0 0.0
0.0 72.0 0.0
0.0 84.0 0.0
0.0 96.0 0.0
0.0 108.0 0.0
0.0 120.0 0.0
12.0 120.0 0.0
24.0 120.0 0.0
36.0 120.0 0.0
48.0 120.0 0.0
60.0 120.0 0.0
72.0 120.0 0.0
84.0 120.0 0.0
96.0 120.0 0.0
108.0 120.0 0.0
120.0 120.0 0.0
</DataArray>
</Points>
<Cells>
<DataArray type="Int64" Name="connectivity" format="ascii">
0 2
2 4
4 6
6 8
8 10
10 12
12 14
14 16
16 18
18 20
</DataArray>
<DataArray type="Int64" Name="offsets" format="ascii">
2
4
6
8
10
12
14
16
18
20
</DataArray>
<DataArray type="UInt8" Name="types" format="ascii">
3
3
3
3
3
3
3
3
3
3
</DataArray>
</Cells>
</Piece>
</UnstructuredGrid>
</VTKFile>
